                         Program Version 6.0.0  -   RELEASE  -
|  1> ! wB97M-V DEF2-SVP
|  2>
|  3> * XYZFILE 0 1 paracetamol.xyz
|  4>
|  5>                          ****END OF INPUT****

CARTESIAN COORDINATES (ANGSTROEM)
---------------------------------
  C      9.509770    3.334180    5.416700
  C     10.769650    3.348280    4.827190
  C     11.770520    2.496640    5.287680
  C     11.518080    1.635600    6.342790
  C     10.266070    1.639360    6.953370
  C      9.278700    2.482540    6.489050
  C      8.230730    4.762980    3.830200
  C      6.943540    5.542240    3.719710
  H     10.930190    3.957400    4.145070
  H     12.675450    2.556800    4.917880
  H     10.101140    1.062200    7.689780
  H      8.407080    2.481600    6.891420
  H     12.348340    0.517000    7.562040
  H      7.723980    4.239400    5.582120
  H      6.613770    5.480200    2.835770
  H      6.511850    5.574200    4.483580
  H      7.180870    6.589400    3.691610
  N      8.426430    4.169840    5.016880
  O     12.535840    0.799940    6.744520
  O      9.034950    4.678380    2.900910

 Total Charge           Charge          ....    0
 Multiplicity           Mult            ....    1
 Number of Electrons    NEL             ....   80
 Basis Dimension        Dim             ....  199

ORBITAL ENERGIES
----------------

  NO   OCC          E(Eh)            E(eV)
   0   2.0000     -22.007700      -598.8600
   1   2.0000     -21.945426      -597.1654
   2   2.0000     -16.818452      -457.6533
   3   2.0000     -12.359714      -336.3249
   4   2.0000     -12.318278      -335.1974
   5   2.0000     -12.302303      -334.7627
   6   2.0000     -12.259185      -333.5894
   7   2.0000     -12.253731      -333.4410
   8   2.0000     -12.249396      -333.3230
   9   2.0000     -12.245959      -333.2295
  10   2.0000     -12.236942      -332.9841
  11   2.0000      -1.728527       -47.0356
  12   2.0000      -1.681136       -45.7460
  13   2.0000      -1.542715       -41.9794
  14   2.0000      -1.379982       -37.5512
  15   2.0000      -1.302816       -35.4514
  16   2.0000      -1.280510       -34.8444
  17   2.0000      -1.268904       -34.5286
  18   2.0000      -1.189853       -32.3775
  19   2.0000      -1.149256       -31.2728
  20   2.0000      -1.138528       -30.9809
  21   2.0000      -1.093975       -29.7686
  22   2.0000      -1.057140       -28.7662
  23   2.0000      -1.041397       -28.3378
  24   2.0000      -1.016171       -27.6514
  25   2.0000      -0.967527       -26.3277
  26   2.0000      -0.962319       -26.1860
  27   2.0000      -0.955503       -26.0006
  28   2.0000      -0.944295       -25.6956
  29   2.0000      -0.939648       -25.5691
  30   2.0000      -0.922634       -25.1061
  31   2.0000      -0.911733       -24.8095
  32   2.0000      -0.908931       -24.7333
  33   2.0000      -0.850244       -23.1363
  34   2.0000      -0.832476       -22.6528
  35   2.0000      -0.828379       -22.5413
  36   2.0000      -0.807423       -21.9711
  37   2.0000      -0.759207       -20.6591
  38   2.0000      -0.647853       -17.6290
  39   2.0000      -0.637629       -17.3508
  40   0.0000      -0.292916        -7.9707
  41   0.0000      -0.251685        -6.8487
  42   0.0000      -0.239246        -6.5102
  43   0.0000      -0.145218        -3.9516
  44   0.0000      -0.129183        -3.5153

MULLIKEN ATOMIC CHARGES
-----------------------
   0 C :    0.113184
   1 C :    0.132219
   2 C :    0.057356
   3 C :    0.164966
   4 C :    0.057804
   5 C :    0.080383
   6 C :   -0.038452
   7 C :    0.388330
   8 H :   -0.141544
   9 H :   -0.087404
  10 H :   -0.137785
  11 H :   -0.130158
  12 H :    0.129005
  13 H :    0.055070
  14 H :   -0.037428
  15 H :   -0.138779
  16 H :    0.007216
  17 N :   -0.022161
  18 O :   -0.171612
  19 O :   -0.280212
Sum of atomic charges:   -0.0000000

LOEWDIN ATOMIC CHARGES
----------------------
   0 C :    0.033882
   1 C :    0.026996
   2 C :   -0.012000
   3 C :    0.066987
   4 C :   -0.039114
   5 C :   -0.007235
   6 C :    0.096254
   7 C :   -0.019381
   8 H :   -0.015949
   9 H :    0.004987
  10 H :   -0.012106
  11 H :   -0.009641
  12 H :    0.030296
  13 H :    0.028441
  14 H :    0.017286
  15 H :   -0.029325
  16 H :    0.067513
  17 N :    0.038419
  18 O :   -0.028096
  19 O :   -0.238215

  Mayer bond orders larger than 0.100000
B(  0-C ,  1-C ) :   1.3910 B(  0-C ,  5-C ) :   1.3647 B(  0-C , 17-N ) :   1.0150
B(  1-C ,  2-C ) :   1.3636 B(  1-C ,  8-H ) :   1.0337 B(  2-C ,  3-C ) :   1.3657
B(  2-C ,  9-H ) :   1.0208 B(  3-C ,  4-C ) :   1.3255 B(  3-C , 18-O ) :   1.1575
B(  4-C ,  5-C ) :   1.3821 B(  4-C , 10-H ) :   1.0140 B(  5-C , 11-H ) :   1.0097
B(  6-C ,  7-C ) :   1.0198 B(  6-C , 17-N ) :   1.1691 B(  6-C , 19-O ) :   2.0565
B(  7-C , 14-H ) :   0.9204 B(  7-C , 15-H ) :   0.9006 B(  7-C , 16-H ) :   0.8999
B( 12-H , 18-O ) :   1.0068 B( 13-H , 17-N ) :   0.9408

FINAL SINGLE POINT ENERGY      -514.750470093060

DIPOLE MOMENT
-------------

Method             : SCF
Type of density    : Electron Density
Multiplicity       :   1
Irrep              :   0
Energy             :  -514.7504700930601302 Eh
Relativity type    :
Basis              : AO
                                X                 Y                 Z
Electronic contribution:      4.513288573      -3.424844449       0.727335761
Nuclear contribution   :     -5.623527571       3.523362818       0.836470409
                        -----------------------------------------
Total Dipole Moment    :     -1.110238998       0.098518368       1.563806170
                        -----------------------------------------
Magnitude (a.u.)       :      1.920371381
Magnitude (Debye)      :      4.881196135

Rotational constants in cm-1:             0.124045             0.018345             0.016158
Rotational constants in MHz :          3718.767912           549.975046           484.412568

                             ****ORCA TERMINATED NORMALLY****
TOTAL RUN TIME: 0 days 0 hours 0 minutes 40 seconds 923 msec
