                         Program Version 6.0.0  -   RELEASE  -
|  1> ! wB97M-V DEF2-SVP SMD(WATER)
|  2>
|  3> * XYZFILE 0 1 paracetamol.xyz
|  4>
|  5>                          ****END OF INPUT****

CARTESIAN COORDINATES (ANGSTROEM)
---------------------------------
  C      9.509770    3.334180    5.416700
  C     10.769650    3.348280    4.827190
  C     11.770520    2.496640    5.287680
  C     11.518080    1.635600    6.342790
  C     10.266070    1.639360    6.953370
  C      9.278700    2.482540    6.489050
  C      8.230730    4.762980    3.830200
  C      6.943540    5.542240    3.719710
  H     10.930190    3.957400    4.145070
  H     12.675450    2.556800    4.917880
  H     10.101140    1.062200    7.689780
  H      8.407080    2.481600    6.891420
  H     12.348340    0.517000    7.562040
  H      7.723980    4.239400    5.582120
  H      6.613770    5.480200    2.835770
  H      6.511850    5.574200    4.483580
  H      7.180870    6.589400    3.691610
  N      8.426430    4.169840    5.016880
  O     12.535840    0.799940    6.744520
  O      9.034950    4.678380    2.900910

 Total Charge           Charge          ....    0
 Multiplicity           Mult            ....    1
 Number of Electrons    NEL             ....   80
 Basis Dimension        Dim             ....  199

ORBITAL ENERGIES
----------------

  NO   OCC          E(Eh)            E(eV)
   0   2.0000     -22.005486      -598.7997
   1   2.0000     -21.958782      -597.5288
   2   2.0000     -16.813778      -457.5262
   3   2.0000     -12.365882      -336.4927
   4   2.0000     -12.317278      -335.1702
   5   2.0000     -12.300966      -334.7263
   6   2.0000     -12.253101      -333.4238
   7   2.0000     -12.250693      -333.3583
   8   2.0000     -12.247881      -333.2818
   9   2.0000     -12.247057      -333.2594
  10   2.0000     -12.221935      -332.5758
  11   2.0000      -1.724891       -46.9367
  12   2.0000      -1.695644       -46.1408
  13   2.0000      -1.537956       -41.8499
  14   2.0000      -1.378493       -37.5107
  15   2.0000      -1.297841       -35.3161
  16   2.0000      -1.278118       -34.7794
  17   2.0000      -1.259990       -34.2861
  18   2.0000      -1.186112       -32.2757
  19   2.0000      -1.146829       -31.2068
  20   2.0000      -1.134272       -30.8651
  21   2.0000      -1.093165       -29.7465
  22   2.0000      -1.053066       -28.6554
  23   2.0000      -1.052549       -28.6413
  24   2.0000      -1.016319       -27.6554
  25   2.0000      -0.965376       -26.2692
  26   2.0000      -0.961732       -26.1701
  27   2.0000      -0.949519       -25.8377
  28   2.0000      -0.939177       -25.5563
  29   2.0000      -0.937781       -25.5183
  30   2.0000      -0.920656       -25.0523
  31   2.0000      -0.915162       -24.9028
  32   2.0000      -0.910734       -24.7823
  33   2.0000      -0.848894       -23.0996
  34   2.0000      -0.839200       -22.8358
  35   2.0000      -0.833085       -22.6694
  36   2.0000      -0.795061       -21.6347
  37   2.0000      -0.758224       -20.6323
  38   2.0000      -0.647592       -17.6219
  39   2.0000      -0.637504       -17.3474
  40   0.0000      -0.293643        -7.9904
  41   0.0000      -0.250531        -6.8173
  42   0.0000      -0.238848        -6.4994
  43   0.0000      -0.142321        -3.8728
  44   0.0000      -0.125418        -3.4128

MULLIKEN ATOMIC CHARGES
-----------------------
   0 C :    0.094923
   1 C :    0.092943
   2 C :    0.031294
   3 C :    0.163934
   4 C :    0.055917
   5 C :    0.082231
   6 C :   -0.033764
   7 C :    0.404702
   8 H :   -0.153341
   9 H :   -0.076306
  10 H :   -0.103744
  11 H :   -0.094486
  12 H :    0.170570
  13 H :    0.097596
  14 H :   -0.038699
  15 H :   -0.112631
  16 H :    0.021653
  17 N :   -0.002084
  18 O :   -0.216537
  19 O :   -0.384170
Sum of atomic charges:   -0.0000000

LOEWDIN ATOMIC CHARGES
----------------------
   0 C :    0.024394
   1 C :    0.003308
   2 C :   -0.026885
   3 C :    0.060582
   4 C :   -0.025342
   5 C :    0.003651
   6 C :    0.110496
   7 C :   -0.008913
   8 H :   -0.021399
   9 H :    0.008029
  10 H :    0.001597
  11 H :    0.004807
  12 H :    0.052042
  13 H :    0.050818
  14 H :    0.017411
  15 H :   -0.017494
  16 H :    0.076901
  17 N :    0.058038
  18 O :   -0.050171
  19 O :   -0.321869

  Mayer bond orders larger than 0.100000
B(  0-C ,  1-C ) :   1.3791 B(  0-C ,  5-C ) :   1.3512 B(  0-C , 17-N ) :   1.0270
B(  1-C ,  2-C ) :   1.3564 B(  1-C ,  8-H ) :   1.0390 B(  2-C ,  3-C ) :   1.3609
B(  2-C ,  9-H ) :   1.0288 B(  3-C ,  4-C ) :   1.3171 B(  3-C , 18-O ) :   1.1517
B(  4-C ,  5-C ) :   1.3783 B(  4-C , 10-H ) :   1.0387 B(  5-C , 11-H ) :   1.0316
B(  6-C ,  7-C ) :   1.0366 B(  6-C , 17-N ) :   1.2288 B(  6-C , 19-O ) :   1.9533
B(  7-C , 14-H ) :   0.9177 B(  7-C , 15-H ) :   0.9028 B(  7-C , 16-H ) :   0.8939
B( 12-H , 18-O ) :   0.9894 B( 13-H , 17-N ) :   0.9299

FINAL SINGLE POINT ENERGY      -514.771258859234

DIPOLE MOMENT
-------------

Method             : SCF
Type of density    : Electron Density
Multiplicity       :   1
Irrep              :   0
Energy             :  -514.7712588592335123 Eh
Relativity type    :
Basis              : AO
                                X                 Y                 Z
Electronic contribution:      4.009382741      -3.458671428       1.455596118
Nuclear contribution   :     -5.623527571       3.523362818       0.836470409
                        -----------------------------------------
Total Dipole Moment    :     -1.614144830       0.064691390       2.292066527
                        -----------------------------------------
Magnitude (a.u.)       :      2.804142912
Magnitude (Debye)      :      7.127564846

Rotational constants in cm-1:             0.124045             0.018345             0.016158
Rotational constants in MHz :          3718.767912           549.975046           484.412568

                             ****ORCA TERMINATED NORMALLY****
TOTAL RUN TIME: 0 days 0 hours 0 minutes 43 seconds 415 msec
