                         Program Version 6.0.0  -   RELEASE  -
|  1> # Calculations for Boys-Bernardi CP correction
|  2> #
|  3>
|  4> # --------------------------------------------
|  5> # First the monomer. In principle, you only need
|  6> # to run it once, but we keep it for clarity.
|  7> # --------------------------------------------
|  8> ! wb97x def2-qzvp VeryTightSCF PModel
|  9> %id "monomer"
| 10> * xyz 0 1
| 11> O   -0.702196054  -0.056060256   0.009942262
| 12> H   -1.022193224   0.846775782  -0.011488714
| 13> H    0.257521062   0.042121496   0.005218999
| 14> *
| 15>
| 16> $new_job
| 17> ! wb97x def2-qzvp VeryTightSCF PModel
| 18> %id "monomer"
| 19> * xyz 0 1
| 20> O    2.220871067   0.026716792   0.000620476
| 21> H    2.597492682  -0.411663274   0.766744858
| 22> H    2.593135384  -0.449496183  -0.744782026
| 23> *
| 24>
| 25> # --------------------------------------------
| 26> # now the dimer
| 27> # --------------------------------------------
| 28> $new_job
| 29> ! wb97x def2-qzvp VeryTightSCF PModel
| 30> %id "dimer"
| 31> * xyz 0 1
| 32> O   -0.702196054  -0.056060256   0.009942262
| 33> H   -1.022193224   0.846775782  -0.011488714
| 34> H    0.257521062   0.042121496   0.005218999
| 35> O    2.220871067   0.026716792   0.000620476
| 36> H    2.597492682  -0.411663274   0.766744858
| 37> H    2.593135384  -0.449496183  -0.744782026
| 38> *
| 39>
| 40> # --------------------------------------------
| 41> # Now the calculation of the monomer at the
| 42> # dimer geometry but with the dimer basis set
| 43> # --------------------------------------------
| 44> $new_job
| 45> ! wb97x def2-qzvp VeryTightSCF PModel
| 46> %id "monomer_ghost"
| 47> * xyz 0 1
| 48> O   -0.702196054  -0.056060256   0.009942262
| 49> H   -1.022193224   0.846775782  -0.011488714
| 50> H    0.257521062   0.042121496   0.005218999
| 51> O:   2.220871067   0.026716792   0.000620476
| 52> H:   2.597492682  -0.411663274   0.766744858
| 53> H:   2.593135384  -0.449496183  -0.744782026
| 54> *
| 55>
| 56> $new_job
| 57> ! wb97x def2-qzvp VeryTightSCF PModel
| 58> %id "monomer_ghost"
| 59> * xyz 0 1
| 60> O:  -0.702196054  -0.056060256   0.009942262
| 61> H:  -1.022193224   0.846775782  -0.011488714
| 62> H:   0.257521062   0.042121496   0.005218999
| 63> O    2.220871067   0.026716792   0.000620476
| 64> H    2.597492682  -0.411663274   0.766744858
| 65> H    2.593135384  -0.449496183  -0.744782026
| 66> *
| 67>
| 68>                          ****END OF INPUT****
 Total Charge           Charge          ....    0
 Multiplicity           Mult            ....    1
 Number of Electrons    NEL             ....   10
FINAL SINGLE POINT ENERGY       -76.448676886829
FINAL SINGLE POINT ENERGY       -76.448742408684
FINAL SINGLE POINT ENERGY      -152.906555192605
FINAL SINGLE POINT ENERGY       -76.448737774934

CARTESIAN COORDINATES (ANGSTROEM)
---------------------------------
  O     -0.702196   -0.056060    0.009942
  H     -1.022193    0.846776   -0.011489
  H      0.257521    0.042121    0.005219
  O      2.220871    0.026717    0.000620
  H      2.597493   -0.411663    0.766745
  H      2.593135   -0.449496   -0.744782

 Multiplicity           Mult            ....    1
 Number of Electrons    NEL             ....   10
 Basis Dimension        Dim             ....  234

ORBITAL ENERGIES
----------------

  NO   OCC          E(Eh)            E(eV)
   0   2.0000     -19.200966      -522.4849
   1   2.0000      -1.141764       -31.0690
   2   2.0000      -0.644847       -17.5472
   3   2.0000      -0.505964       -13.7680
   4   2.0000      -0.428812       -11.6686
   5   0.0000       0.089290         2.4297
   6   0.0000       0.127864         3.4794
   7   0.0000       0.151297         4.1170
   8   0.0000       0.206989         5.6324
   9   0.0000       0.280109         7.6221

MULLIKEN ATOMIC CHARGES
-----------------------
   0 O :    0.001427
   1 H :    0.000565
   2 H :   -0.006533
   3 O :   -0.442347
   4 H :    0.223395
   5 H :    0.223492
Sum of atomic charges:    0.0000000

LOEWDIN ATOMIC CHARGES
----------------------
   0 O :   -0.009543
   1 H :   -0.001296
   2 H :   -0.082543
   3 O :    0.805490
   4 H :   -0.356071
   5 H :   -0.356038

  Mayer bond orders larger than 0.100000
B(  3-O ,  4-H ) :   1.0276 B(  3-O ,  5-H ) :   1.0276

FINAL SINGLE POINT ENERGY       -76.448940452520

DIPOLE MOMENT
-------------

Method             : SCF
Type of density    : Electron Density
Multiplicity       :   1
Irrep              :   0
Energy             :   -76.4489404525200484 Eh
Relativity type    :
Basis              : AO
                                X                 Y                 Z
Electronic contribution:     -0.139834381       0.174615045      -0.003963600
Nuclear contribution   :      0.623343171      -0.761271246       0.017248077
                        -----------------------------------------
Total Dipole Moment    :      0.483508790      -0.586656202       0.013284477
                        -----------------------------------------
Magnitude (a.u.)       :      0.760343821
Magnitude (Debye)      :      1.932640404

Rotational constants in cm-1:            26.945200            14.630495             9.482021
Rotational constants in MHz :        807796.770105        438611.199658        284263.835767

                             ****ORCA TERMINATED NORMALLY****
TOTAL RUN TIME: 0 days 0 hours 0 minutes 57 seconds 200 msec
