                         Program Version 6.0.0  -   RELEASE  -
|  1> ! dlpno-ccsd(t) cc-pvdz cc-pvdz/c cc-pvtz/jk rijk verytightscf TightPNO LED
|  2>
|  3> *xyz 0 1
|  4> O(1)   -0.702196054  -0.056060256   0.009942262
|  5> H(1)   -1.022193224   0.846775782  -0.011488714
|  6> H(1)    0.257521062   0.042121496   0.005218999
|  7> O(2)    2.220871067   0.026716792   0.000620476
|  8> H(2)    2.597492682  -0.411663274   0.766744858
|  9> H(2)    2.593135384  -0.449496183  -0.744782026
| 10> *
| 11>
| 12>                          ****END OF INPUT****

CARTESIAN COORDINATES (ANGSTROEM)
---------------------------------
  O     -0.702196   -0.056060    0.009942
  H     -1.022193    0.846776   -0.011489
  H      0.257521    0.042121    0.005219
  O      2.220871    0.026717    0.000620
  H      2.597493   -0.411663    0.766745
  H      2.593135   -0.449496   -0.744782

 Total Charge           Charge          ....    0
 Multiplicity           Mult            ....    1
 Number of Electrons    NEL             ....   20
 Basis Dimension        Dim             ....   48

ORBITAL ENERGIES
----------------

  NO   OCC          E(Eh)            E(eV)
   0   2.0000     -20.583990      -560.1188
   1   2.0000     -20.515641      -558.2590
   2   2.0000      -1.368435       -37.2370
   3   2.0000      -1.302629       -35.4463
   4   2.0000      -0.727672       -19.8009
   5   2.0000      -0.671923       -18.2840
   6   2.0000      -0.600797       -16.3485
   7   2.0000      -0.541405       -14.7324
   8   2.0000      -0.516305       -14.0494
   9   2.0000      -0.461456       -12.5568
  10   0.0000       0.163349         4.4450
  11   0.0000       0.231627         6.3029
  12   0.0000       0.240052         6.5322
  13   0.0000       0.379310        10.3215
  14   0.0000       0.757170        20.6036

MULLIKEN ATOMIC CHARGES
-----------------------
   0 O :   -0.349996
   1 H :    0.143760
   2 H :    0.165387
   3 O :   -0.297144
   4 H :    0.168993
   5 H :    0.169001
Sum of atomic charges:    0.0000000

LOEWDIN ATOMIC CHARGES
----------------------
   0 O :   -0.121428
   1 H :    0.040660
   2 H :    0.023134
   3 O :   -0.060299
   4 H :    0.058963
   5 H :    0.058970

  Mayer bond orders larger than 0.100000
B(  0-O ,  1-H ) :   1.0257 B(  0-O ,  2-H ) :   0.9849 B(  3-O ,  4-H ) :   1.0077
B(  3-O ,  5-H ) :   1.0077

E(0)                                       ...   -152.062451490
E(0)                                       ...   -152.062451490
E(CORR)(strong-pairs)                      ...     -0.424722438
E(CORR)(weak-pairs)                        ...     -0.000023499
E(CORR)(corrected)                         ...     -0.424745938
E(TOT)                                     ...   -152.487197428
E(CCSD(T))                                 ...   -152.493382873
FINAL SINGLE POINT ENERGY      -152.493382872670

DIPOLE MOMENT
-------------

Method             : SCF
Type of density    : Electron Density
Multiplicity       :   1
Irrep              :   0
Energy             :  -152.0624514899057260 Eh
Relativity type    :
Basis              : AO
                                X                 Y                 Z
Electronic contribution:      0.026597704      -0.037263784       0.000836215
Nuclear contribution   :      1.155820873       0.071936559      -0.004521682
                        -----------------------------------------
Total Dipole Moment    :      1.182418577       0.034672775      -0.003685466
                        -----------------------------------------
Magnitude (a.u.)       :      1.182932575
Magnitude (Debye)      :      3.006775652

Rotational constants in cm-1:             7.363184             0.211513             0.211473
Rotational constants in MHz :        220742.710154          6341.007208          6339.811674

                             ****ORCA TERMINATED NORMALLY****
TOTAL RUN TIME: 0 days 0 hours 0 minutes 5 seconds 577 msec
